Created on Thu Feb 01 13:51:54 2018 

         296 atoms
         348 bonds
         624 angles
         720 dihedrals
         528 impropers

           4 atom types
           4 bond types
           2 angle types
           1 dihedral types
           1 improper types
           0.000000  15.662000 xlo xhi
           0.000000  15.662100 ylo yhi
           0.000000  18.207300 zlo zhi
           0.000000   0.000000   0.000000 xy xz yz

Masses

    1    12.010700000 # C_R
    2     1.007940000 # H_
    3    14.006700000 # N_R
    4    65.380000000 # Zn

Bond Coeffs

    1      525.000000        1.390000  # C_R C_R
    2      525.000000        1.340000  # C_R N_R
    3      350.000000        1.020000  # C_R H_
    4      350.000000        1.970000  # N_R Zn

Angle Coeffs

    1       66.666667      120.000000 # C_R C_R N_R
    2       56.249847      109.471000 # N_R Zn N_R

Dihedral Coeffs

    1        3.125000               2             540        0.000000 # N_R C_R C_R N_R

Improper Coeffs

    1       13.333333        0.000000  # C_R C_R N_R H_

Pair Coeffs

    1        0.095100        3.472990 # C_R C_R
    2        0.015200        2.846421 # H_ H_
    3        0.077400        3.262560 # N_R N_R
    4        0.055000        4.044680 # Zn Zn

Atoms

       1      444        1     0.00000    1.71897    1.63295   11.00710
       2      444        1     0.00000   13.97714   13.88776    7.50900
       3      444        1     0.00000    6.14614   13.88776    1.59465
       4      444        1     0.00000    9.54997    1.63295   16.30385
       5      444        1     0.00000   13.97714    9.60539   16.61265
       6      444        1     0.00000    1.71897    6.19810    1.90345
       7      444        1     0.00000    9.54997    6.19810    7.20020
       8      444        1     0.00000    6.14614    9.60539   10.69830
       9      444        1     0.00000   14.10830   15.11300    8.16801
      10      444        1     0.00000    6.27730   15.11300    0.93564
      11      444        1     0.00000   14.10830    8.38015   17.27166
      12      444        1     0.00000    6.27730    8.38015   10.03929
      13      444        1     0.00000   15.39741   15.57350    8.41671
      14      444        1     0.00000    7.56641   15.57350    0.68694
      15      444        1     0.00000   15.39741    7.91965   17.52036
      16      444        1     0.00000    7.56641    7.91965    9.79059
      17      444        1     0.00000    0.86681   14.83691    8.01686
      18      444        1     0.00000    8.69781   14.83691    1.08679
      19      444        1     0.00000    0.86681    8.65624   17.12051
      20      444        1     0.00000    8.69781    8.65624   10.19044
      21      444        1     0.00000    0.74927   13.61862    7.35639
      22      444        1     0.00000    8.58027   13.61862    1.74726
      23      444        1     0.00000    0.74927    9.87453   16.46004
      24      444        1     0.00000    8.58027    9.87453   10.85091
      25      444        1     0.00000    0.58834    2.35832   11.31434
      26      444        1     0.00000   15.11942   13.14866    7.10631
      27      444        1     0.00000    7.28842   13.14866    1.99734
      28      444        1     0.00000    8.41934    2.35832   15.99661
      29      444        1     0.00000   15.11942   10.34449   16.20996
      30      444        1     0.00000    0.58834    5.47273    2.21069
      31      444        1     0.00000    8.41934    5.47273    6.89296
      32      444        1     0.00000    7.28842   10.34449   11.10099
      33      444        1     0.00000    5.77640    4.96185   11.32805
      34      444        1     0.00000    9.67827   10.77609    7.10483
      35      444        1     0.00000    1.84727   10.77609    1.99882
      36      444        1     0.00000   13.60740    4.96185   15.98290
      37      444        1     0.00000    9.67827   12.71706   16.20848
      38      444        1     0.00000    5.77640    2.86920    2.22440
      39      444        1     0.00000   13.60740    2.86920    6.87925
      40      444        1     0.00000    1.84727   12.71706   11.10247
      41      444        1     0.00000    4.86731    0.11953   13.20495
      42      444        1     0.00000   10.81264   15.55262    5.15287
      43      444        1     0.00000    2.98164   15.55262    3.95078
      44      444        1     0.00000   12.69831    0.11953   14.10600
      45      444        1     0.00000   10.81264    7.94053   14.25652
      46      444        1     0.00000    4.86731    7.71152    4.10130
      47      444        1     0.00000   12.69831    7.71152    5.00235
      48      444        1     0.00000    2.98164    7.94053   13.05443
      49      444        1     0.00000    4.36218    1.66248    7.98448
      50      444        1     0.00000   11.32043   13.98218   10.37361
      51      444        1     0.00000    3.48943   13.98218   16.93734
      52      444        1     0.00000   12.19318    1.66248    1.11917
      53      444        1     0.00000   11.32043    9.51097    1.26996
      54      444        1     0.00000    4.36218    6.16857   17.08813
      55      444        1     0.00000   12.19318    6.16857   10.22282
      56      444        1     0.00000    3.48943    9.51097    7.83369
      57      444        1     0.00000   14.19424    5.49697    9.72785
      58      444        1     0.00000    1.48335   10.16298    8.34073
      59      444        1     0.00000    9.31435   10.16298    0.76292
      60      444        1     0.00000    6.36324    5.49697   17.58310
      61      444        1     0.00000    1.48335   13.33017   17.44438
      62      444        1     0.00000   14.19424    2.33408    0.62420
      63      444        1     0.00000    6.36324    2.33408    8.47945
      64      444        1     0.00000    9.31435   13.33017    9.86657
      65      444        1     0.00000   12.91039    6.03772   11.39018
      66      444        1     0.00000    2.76416    9.63752    6.67075
      67      444        1     0.00000   10.59516    9.63752    2.43290
      68      444        1     0.00000    5.07939    6.03772   15.92077
      69      444        1     0.00000    2.76416   13.85563   15.77440
      70      444        1     0.00000   12.91039    1.79333    2.28653
      71      444        1     0.00000    5.07939    1.79333    6.81712
      72      444        1     0.00000   10.59516   13.85563   11.53655
      73      444        1     0.00000   14.23702    3.59119   14.42663
      74      444        1     0.00000    1.48889   12.08098    3.69444
      75      444        1     0.00000    9.31989   12.08098    5.40921
      76      444        1     0.00000    6.40602    3.59119   12.88432
      77      444        1     0.00000    1.48889   11.41217   12.79809
      78      444        1     0.00000   14.23702    4.23986    5.32298
      79      444        1     0.00000    6.40602    4.23986    3.78067
      80      444        1     0.00000    9.31989   11.41217   14.51286
      81      444        1     0.00000   14.33109    5.66771   15.04795
      82      444        1     0.00000    1.11908   10.08133    2.93795
      83      444        1     0.00000    8.95008   10.08133    6.16570
      84      444        1     0.00000    6.50009    5.66771   12.26300
      85      444        1     0.00000    1.11908   13.41182   12.04160
      86      444        1     0.00000   14.33109    2.16334    5.94430
      87      444        1     0.00000    6.50009    2.16334    3.15935
      88      444        1     0.00000    8.95008   13.41182   15.26935
      89      444        1     0.00000    2.18978    6.89082   13.46384
      90      444        1     0.00000   13.47923    8.77079    4.59414
      91      444        1     0.00000    5.64823    8.77079    4.50951
      92      444        1     0.00000   10.02078    6.89082   13.84711
      93      444        1     0.00000   13.47923   14.72236   13.69779
      94      444        1     0.00000    2.18978    0.94023    4.36019
      95      444        1     0.00000   10.02078    0.94023    4.74346
      96      444        1     0.00000    5.64823   14.72236   13.61316
      97      444        1     0.00000    1.50899    7.54696   11.51328
      98      444        1     0.00000   14.18282    8.10204    6.53240
      99      444        1     0.00000    6.35182    8.10204    2.57125
     100      444        1     0.00000    9.33999    7.54696   15.79767
     101      444        1     0.00000   14.18282   15.39111   15.63605
     102      444        1     0.00000    1.50899    0.28409    2.40963
     103      444        1     0.00000    9.33999    0.28409    6.69402
     104      444        1     0.00000    6.35182   15.39111   11.67490
     105      444        1     0.00000    2.32271    3.61552   11.64228
     106      444        1     0.00000   13.33637   12.06317    6.53657
     107      444        1     0.00000    5.50537   12.06317    2.56708
     108      444        1     0.00000   10.15371    3.61552   15.66867
     109      444        1     0.00000   13.33637   11.42998   15.64022
     110      444        1     0.00000    2.32271    4.21552    2.53863
     111      444        1     0.00000   10.15371    4.21552    6.56502
     112      444        1     0.00000    5.50537   11.42998   11.67073
     113      444        2     0.00000    7.36996    5.76104    6.93168
     114      444        2     0.00000    9.65204    7.22620    7.54469
     115      444        2     0.00000    1.82104    7.22620    1.55891
     116      444        2     0.00000   15.20096    5.76104    2.17202
     117      444        2     0.00000    1.82104    0.60481   10.66260
     118      444        2     0.00000   15.20096    2.07006   11.27564
     119      444        2     0.00000    7.36996    2.07006   16.03528
     120      444        2     0.00000    9.65204    0.60481   16.64839
     121      444        2     0.00000   13.22614    0.03142    8.45849
     122      444        2     0.00000    5.39514    0.03142    0.64516
     123      444        2     0.00000   13.22614    7.79963   17.56214
     124      444        2     0.00000    5.39514    7.79963    9.74881
     125      444        2     0.00000   15.54183    0.87404    8.91770
     126      444        2     0.00000    7.71083    0.87404    0.18595
     127      444        2     0.00000   15.54183    6.95701   18.02135
     128      444        2     0.00000    7.71083    6.95701    9.28960
     129      444        2     0.00000    1.86473   15.23669    8.22551
     130      444        2     0.00000    9.69573   15.23669    0.87814
     131      444        2     0.00000    1.86473    8.25646   17.32916
     132      444        2     0.00000    9.69573    8.25646    9.98179
     133      444        2     0.00000    1.62875   13.04260    7.04999
     134      444        2     0.00000    9.45975   13.04260    2.05366
     135      444        2     0.00000    1.62875   10.45055   16.15364
     136      444        2     0.00000    9.45975   10.45055   11.15731
     137      444        2     0.00000    5.30445    5.29653   10.40611
     138      444        2     0.00000   10.02564   10.46781    8.08938
     139      444        2     0.00000    2.19464   10.46781    1.01427
     140      444        2     0.00000   13.13545    5.29653   16.90484
     141      444        2     0.00000   10.02564   13.02534   17.19303
     142      444        2     0.00000    5.30445    2.53452    1.30246
     143      444        2     0.00000   13.13545    2.53452    7.80119
     144      444        2     0.00000    2.19464   13.02534   10.11792
     145      444        2     0.00000    4.02336    0.60352   13.69387
     146      444        2     0.00000   11.65547   15.07187    4.65897
     147      444        2     0.00000    3.82447   15.07187    4.44468
     148      444        2     0.00000   11.85436    0.60352   13.61708
     149      444        2     0.00000   11.65547    8.42128   13.76262
     150      444        2     0.00000    4.02336    7.22753    4.59021
     151      444        2     0.00000   11.85436    7.22753    4.51344
     152      444        2     0.00000    3.82447    8.42128   13.54833
     153      444        2     0.00000    3.32420    1.37556    8.14498
     154      444        2     0.00000   12.35924   14.26972   10.21719
     155      444        2     0.00000    4.52824   14.26972   17.09376
     156      444        2     0.00000   11.15520    1.37556    0.95867
     157      444        2     0.00000   12.35924    9.22343    1.11354
     158      444        2     0.00000    3.32420    6.45549   17.24863
     159      444        2     0.00000   11.15520    6.45549   10.06232
     160      444        2     0.00000    4.52824    9.22343    7.99011
     161      444        2     0.00000   15.05471    5.14827    9.15676
     162      444        2     0.00000    0.62319   10.50476    8.91661
     163      444        2     0.00000    8.45419   10.50476    0.18704
     164      444        2     0.00000    7.22371    5.14827   18.15419
     165      444        2     0.00000    0.62319   12.98839   18.02026
     166      444        2     0.00000   15.05471    2.68278    0.05311
     167      444        2     0.00000    7.22371    2.68278    9.05054
     168      444        2     0.00000    8.45419   12.98839    9.29069
     169      444        2     0.00000   12.61416    6.19713   12.42672
     170      444        2     0.00000    3.05559    9.47718    5.63319
     171      444        2     0.00000   10.88659    9.47718    3.47046
     172      444        2     0.00000    4.78316    6.19713   14.88423
     173      444        2     0.00000    3.05559   14.01597   14.73684
     174      444        2     0.00000   12.61416    1.63392    3.32307
     175      444        2     0.00000    4.78316    1.63392    5.78058
     176      444        2     0.00000   10.88659   14.01597   12.57411
     177      444        2     0.00000   14.38151    2.67388   13.85561
     178      444        2     0.00000    1.48488   12.96332    4.33567
     179      444        2     0.00000    9.31588   12.96332    4.76798
     180      444        2     0.00000    6.55051    2.67388   13.45534
     181      444        2     0.00000    1.48488   10.52983   13.43932
     182      444        2     0.00000   14.38151    5.15717    4.75196
     183      444        2     0.00000    6.55051    5.15717    4.35169
     184      444        2     0.00000    9.31588   10.52983   13.87163
     185      444        2     0.00000   14.60153    6.72167   15.02394
     186      444        2     0.00000    0.74167    9.05999    2.92389
     187      444        2     0.00000    8.57267    9.05999    6.17976
     188      444        2     0.00000    6.77053    6.72167   12.28701
     189      444        2     0.00000    0.74167   14.43316   12.02754
     190      444        2     0.00000   14.60153    1.10938    5.92029
     191      444        2     0.00000    6.77053    1.10938    3.18336
     192      444        2     0.00000    8.57267   14.43316   15.28341
     193      444        2     0.00000    2.21464    6.30459   14.38093
     194      444        2     0.00000   13.43760    9.36924    3.68514
     195      444        2     0.00000    5.60660    9.36924    5.41851
     196      444        2     0.00000   10.04564    6.30459   12.93002
     197      444        2     0.00000   13.43760   14.12391   12.78879
     198      444        2     0.00000    2.21464    1.52646    5.27728
     199      444        2     0.00000   10.04564    1.52646    3.82637
     200      444        2     0.00000    5.60660   14.12391   14.52216
     201      444        2     0.00000    0.93416    7.61801   10.59011
     202      444        2     0.00000   14.76516    8.02860    7.45070
     203      444        2     0.00000    6.93416    8.02860    1.65295
     204      444        2     0.00000    8.76516    7.61801   16.72084
     205      444        2     0.00000   14.76516   15.46455   16.55435
     206      444        2     0.00000    0.93416    0.21304    1.48646
     207      444        2     0.00000    8.76516    0.21304    7.61719
     208      444        2     0.00000    6.93416   15.46455   10.75660
     209      444        2     0.00000    2.94381    4.47394   11.90155
     210      444        2     0.00000   12.68782   11.28182    6.13446
     211      444        2     0.00000    4.85682   11.28182    2.96919
     212      444        2     0.00000   10.77481    4.47394   15.40940
     213      444        2     0.00000   12.68782   12.21133   15.23811
     214      444        2     0.00000    2.94381    3.35711    2.79790
     215      444        2     0.00000   10.77481    3.35711    6.30575
     216      444        2     0.00000    4.85682   12.21133   12.07284
     217      444        3     0.00000    2.81296    2.43986   11.21808
     218      444        3     0.00000   12.85791   13.16965    7.12967
     219      444        3     0.00000    5.02691   13.16965    1.97398
     220      444        3     0.00000   10.64396    2.43986   16.09287
     221      444        3     0.00000   12.85791   10.32350   16.23334
     222      444        3     0.00000    2.81296    5.39119    2.11443
     223      444        3     0.00000   10.64396    5.39119    6.98922
     224      444        3     0.00000    5.02691   10.32350   11.07761
     225      444        3     0.00000    5.72109    3.64698   11.73127
     226      444        3     0.00000    9.90955   12.04181    6.61524
     227      444        3     0.00000    2.07855   12.04181    2.48841
     228      444        3     0.00000   13.55209    3.64698   15.57968
     229      444        3     0.00000    9.90955   11.45134   15.71889
     230      444        3     0.00000    5.72109    4.18407    2.62762
     231      444        3     0.00000   13.55209    4.18407    6.47603
     232      444        3     0.00000    2.07855   11.45134   11.59206
     233      444        3     0.00000    5.32129    0.53453   11.97405
     234      444        3     0.00000   10.37379   15.14411    6.39216
     235      444        3     0.00000    2.54279   15.14411    2.71149
     236      444        3     0.00000   13.15229    0.53453   15.33690
     237      444        3     0.00000   10.37379    8.34904   15.49581
     238      444        3     0.00000    5.32129    7.29652    2.87040
     239      444        3     0.00000   13.15229    7.29652    6.23325
     240      444        3     0.00000    2.54279    8.34904   11.81514
     241      444        3     0.00000    5.18368    2.00520    9.03344
     242      444        3     0.00000   10.50010   13.64866    9.31962
     243      444        3     0.00000    2.66910   13.64866   17.99133
     244      444        3     0.00000   13.01468    2.00520    0.07021
     245      444        3     0.00000   10.50010    9.84449    0.21597
     246      444        3     0.00000    5.18368    5.82585   18.13709
     247      444        3     0.00000   13.01468    5.82585    9.17386
     248      444        3     0.00000    2.66910    9.84449    8.88768
     249      444        3     0.00000   14.17759    5.61207   11.06554
     250      444        3     0.00000    1.49466   10.05043    7.00269
     251      444        3     0.00000    9.32566   10.05043    2.10096
     252      444        3     0.00000    6.34659    5.61207   16.24541
     253      444        3     0.00000    1.49466   13.44272   16.10634
     254      444        3     0.00000   14.17759    2.21898    1.96189
     255      444        3     0.00000    6.34659    2.21898    7.14176
     256      444        3     0.00000    9.32566   13.44272   11.20461
     257      444        3     0.00000   14.72684    4.78875   14.06649
     258      444        3     0.00000    0.89668   10.91716    4.00897
     259      444        3     0.00000    8.72768   10.91716    5.09468
     260      444        3     0.00000    6.89584    4.78875   13.24446
     261      444        3     0.00000    0.89668   12.57599   13.11262
     262      444        3     0.00000   14.72684    3.04230    4.96284
     263      444        3     0.00000    6.89584    3.04230    4.14081
     264      444        3     0.00000    8.72768   12.57599   14.19833
     265      444        3     0.00000    1.25874    6.64873   12.47963
     266      444        3     0.00000   14.41845    9.00980    5.57162
     267      444        3     0.00000    6.58745    9.00980    3.53203
     268      444        3     0.00000    9.08974    6.64873   14.83132
     269      444        3     0.00000   14.41845   14.48335   14.67527
     270      444        3     0.00000    1.25874    1.18232    3.37598
     271      444        3     0.00000    9.08974    1.18232    5.72767
     272      444        3     0.00000    6.58745   14.48335   12.63568
     273      444        3     0.00000    0.98254    3.61383   11.71569
     274      444        3     0.00000   14.67595   11.99416    6.48905
     275      444        3     0.00000    6.84495   11.99416    2.61460
     276      444        3     0.00000    8.81354    3.61383   15.59526
     277      444        3     0.00000   14.67595   11.49899   15.59270
     278      444        3     0.00000    0.98254    4.21722    2.61204
     279      444        3     0.00000    8.81354    4.21722    6.49161
     280      444        3     0.00000    6.84495   11.49899   11.71825
     281      444        4     0.00000    4.73649    2.11841   10.94690
     282      444        4     0.00000   10.93809   13.54255    7.40340
     283      444        4     0.00000    3.10709   13.54255    1.70025
     284      444        4     0.00000   12.56749    2.11841   16.36405
     285      444        4     0.00000   10.93809    9.95060   16.50705
     286      444        4     0.00000    4.73649    5.71264    1.84325
     287      444        4     0.00000   12.56749    5.71264    7.26040
     288      444        4     0.00000    3.10709    9.95060   10.80390
     289      444        4     0.00000   15.61039    5.17477   12.35414
     290      444        4     0.00000    0.05015   10.48877    5.72814
     291      444        4     0.00000    7.88115   10.48877    3.37551
     292      444        4     0.00000    7.77939    5.17477   14.95681
     293      444        4     0.00000    0.05015   13.00438   14.83179
     294      444        4     0.00000   15.61039    2.65628    3.25049
     295      444        4     0.00000    7.77939    2.65628    5.85316
     296      444        4     0.00000    7.88115   13.00438   12.47916

Bonds

       1        1        1       25
       2        3        1      117
       3        2        1      217
       4        1        2        9
       5        1        2       26
       6        2        2      218
       7        1        3       10
       8        1        3       27
       9        2        3      219
      10        1        4       28
      11        3        4      120
      12        2        4      220
      13        1        5       11
      14        1        5       29
      15        2        5      221
      16        1        6       30
      17        3        6      115
      18        2        6      222
      19        1        7       31
      20        3        7      114
      21        2        7      223
      22        1        8       12
      23        1        8       32
      24        2        8      224
      25        1        9       13
      26        3        9      121
      27        1       10       14
      28        3       10      122
      29        1       11       15
      30        3       11      123
      31        1       12       16
      32        3       12      124
      33        1       13       17
      34        3       13      125
      35        1       14       18
      36        3       14      126
      37        1       15       19
      38        3       15      127
      39        1       16       20
      40        3       16      128
      41        1       17       21
      42        3       17      129
      43        1       18       22
      44        3       18      130
      45        1       19       23
      46        3       19      131
      47        1       20       24
      48        3       20      132
      49        1       21       26
      50        3       21      133
      51        1       22       27
      52        3       22      134
      53        1       23       29
      54        3       23      135
      55        1       24       32
      56        3       24      136
      57        3       25      118
      58        2       25      273
      59        2       26      274
      60        2       27      275
      61        3       28      119
      62        2       28      276
      63        2       29      277
      64        3       30      116
      65        2       30      278
      66        3       31      113
      67        2       31      279
      68        2       32      280
      69        1       33       84
      70        3       33      137
      71        2       33      225
      72        1       34       83
      73        3       34      138
      74        2       34      226
      75        1       35       82
      76        3       35      139
      77        2       35      227
      78        1       36       81
      79        3       36      140
      80        2       36      228
      81        1       37       88
      82        3       37      141
      83        2       37      229
      84        1       38       87
      85        3       38      142
      86        2       38      230
      87        1       39       86
      88        3       39      143
      89        2       39      231
      90        1       40       85
      91        3       40      144
      92        2       40      232
      93        1       41       96
      94        3       41      145
      95        2       41      233
      96        1       42       95
      97        3       42      146
      98        2       42      234
      99        1       43       94
     100        3       43      147
     101        2       43      235
     102        1       44       93
     103        3       44      148
     104        2       44      236
     105        1       45       92
     106        3       45      149
     107        2       45      237
     108        1       46       91
     109        3       46      150
     110        2       46      238
     111        1       47       90
     112        3       47      151
     113        2       47      239
     114        1       48       89
     115        3       48      152
     116        2       48      240
     117        1       49       71
     118        3       49      153
     119        2       49      241
     120        1       50       72
     121        3       50      154
     122        2       50      242
     123        1       51       69
     124        3       51      155
     125        2       51      243
     126        1       52       70
     127        3       52      156
     128        2       52      244
     129        1       53       67
     130        3       53      157
     131        2       53      245
     132        1       54       68
     133        3       54      158
     134        2       54      246
     135        1       55       65
     136        3       55      159
     137        2       55      247
     138        1       56       66
     139        3       56      160
     140        2       56      248
     141        3       57      161
     142        2       57      247
     143        2       57      249
     144        3       58      162
     145        2       58      248
     146        2       58      250
     147        3       59      163
     148        2       59      245
     149        2       59      251
     150        3       60      164
     151        2       60      246
     152        2       60      252
     153        3       61      165
     154        2       61      243
     155        2       61      253
     156        3       62      166
     157        2       62      244
     158        2       62      254
     159        3       63      167
     160        2       63      241
     161        2       63      255
     162        3       64      168
     163        2       64      242
     164        2       64      256
     165        3       65      169
     166        2       65      249
     167        3       66      170
     168        2       66      250
     169        3       67      171
     170        2       67      251
     171        3       68      172
     172        2       68      252
     173        3       69      173
     174        2       69      253
     175        3       70      174
     176        2       70      254
     177        3       71      175
     178        2       71      255
     179        3       72      176
     180        2       72      256
     181        3       73      177
     182        2       73      228
     183        2       73      257
     184        3       74      178
     185        2       74      227
     186        2       74      258
     187        3       75      179
     188        2       75      226
     189        2       75      259
     190        3       76      180
     191        2       76      225
     192        2       76      260
     193        3       77      181
     194        2       77      232
     195        2       77      261
     196        3       78      182
     197        2       78      231
     198        2       78      262
     199        3       79      183
     200        2       79      230
     201        2       79      263
     202        3       80      184
     203        2       80      229
     204        2       80      264
     205        3       81      185